Composition,Method,Temperature_K,Thermal_Conductivity_W_mK
0.64NaCl-0.36UCl3,SCM,784.15,0.3045815106777732
0.64NaCl-0.36UCl3,SCM,788.350505050505,0.3038986829683281
0.64NaCl-0.36UCl3,SCM,792.5510101010101,0.3032157357739284
0.64NaCl-0.36UCl3,SCM,796.7515151515152,0.30253267000884676
0.64NaCl-0.36UCl3,SCM,800.9520202020202,0.3018494865974488
0.64NaCl-0.36UCl3,SCM,805.1525252525253,0.30116618647426113
0.64NaCl-0.36UCl3,SCM,809.3530303030303,0.3004827705840397
0.64NaCl-0.36UCl3,SCM,813.5535353535354,0.2997992398818385
0.64NaCl-0.36UCl3,SCM,817.7540404040403,0.29911559533307835
0.64NaCl-0.36UCl3,SCM,821.9545454545454,0.29843183791361655
0.64NaCl-0.36UCl3,SCM,826.1550505050504,0.2977479686098156
0.64NaCl-0.36UCl3,SCM,830.3555555555555,0.2970639884186139
0.64NaCl-0.36UCl3,SCM,834.5560606060606,0.2963798983475951
0.64NaCl-0.36UCl3,SCM,838.7565656565656,0.29569569941505786
0.64NaCl-0.36UCl3,SCM,842.9570707070707,0.29501139265008797
0.64NaCl-0.36UCl3,SCM,847.1575757575757,0.2943269790926272
0.64NaCl-0.36UCl3,SCM,851.3580808080808,0.2936424597935458
0.64NaCl-0.36UCl3,SCM,855.5585858585858,0.2929578358147129
0.64NaCl-0.36UCl3,SCM,859.7590909090909,0.2922731082290685
0.64NaCl-0.36UCl3,SCM,863.959595959596,0.2915882781206952
0.64NaCl-0.36UCl3,SCM,868.160101010101,0.29090334658488987
0.64NaCl-0.36UCl3,SCM,872.3606060606061,0.2902183147282363
0.64NaCl-0.36UCl3,SCM,876.5611111111111,0.2895331836686775
0.64NaCl-0.36UCl3,SCM,880.7616161616161,0.2888479545355886
0.64NaCl-0.36UCl3,SCM,884.9621212121212,0.2881626284698499
0.64NaCl-0.36UCl3,SCM,889.1626262626262,0.2874772066239196
0.64NaCl-0.36UCl3,SCM,893.3631313131312,0.2867916901619079
0.64NaCl-0.36UCl3,SCM,897.5636363636363,0.2861060802596506
0.64NaCl-0.36UCl3,SCM,901.7641414141414,0.2854203781047826
0.64NaCl-0.36UCl3,SCM,905.9646464646464,0.28473458489681236
0.64NaCl-0.36UCl3,SCM,910.1651515151515,0.2840487018471964
0.64NaCl-0.36UCl3,SCM,914.3656565656565,0.28336273017941366
0.64NaCl-0.36UCl3,SCM,918.5661616161616,0.28267667112904044
0.64NaCl-0.36UCl3,SCM,922.7666666666667,0.2819905259438254
0.64NaCl-0.36UCl3,SCM,926.9671717171717,0.2813042958837651
0.64NaCl-0.36UCl3,SCM,931.1676767676768,0.28061798222117884
0.64NaCl-0.36UCl3,SCM,935.3681818181818,0.27993158624078496
0.64NaCl-0.36UCl3,SCM,939.5686868686869,0.2792451092397765
0.64NaCl-0.36UCl3,SCM,943.7691919191918,0.2785585525278974
0.64NaCl-0.36UCl3,SCM,947.969696969697,0.2778719174275184
0.64NaCl-0.36UCl3,SCM,952.1702020202019,0.277185205273714
0.64NaCl-0.36UCl3,SCM,956.3707070707071,0.27649841741433906
0.64NaCl-0.36UCl3,SCM,960.571212121212,0.27581155521010553
0.64NaCl-0.36UCl3,SCM,964.7717171717171,0.2751246200346593
0.64NaCl-0.36UCl3,SCM,968.9722222222222,0.27443761327465804
0.64NaCl-0.36UCl3,SCM,973.1727272727272,0.2737505363298484
0.64NaCl-0.36UCl3,SCM,977.3732323232323,0.27306339061314316
0.64NaCl-0.36UCl3,SCM,981.5737373737373,0.27237617755069987
0.64NaCl-0.36UCl3,SCM,985.7742424242424,0.27168889858199785
0.64NaCl-0.36UCl3,SCM,989.9747474747475,0.27100155515991703
0.64NaCl-0.36UCl3,SCM,994.1752525252525,0.2703141487508161
0.64NaCl-0.36UCl3,SCM,998.3757575757576,0.2696266808346107
0.64NaCl-0.36UCl3,SCM,1002.5762626262626,0.2689391529048523
0.64NaCl-0.36UCl3,SCM,1006.7767676767677,0.2682515664688066
0.64NaCl-0.36UCl3,SCM,1010.9772727272727,0.26756392304753285
0.64NaCl-0.36UCl3,SCM,1015.1777777777777,0.2668762241759628
0.64NaCl-0.36UCl3,SCM,1019.3782828282829,0.2661884714029796
0.64NaCl-0.36UCl3,SCM,1023.5787878787878,0.26550066629149727
0.64NaCl-0.36UCl3,SCM,1027.779292929293,0.26481281041854043
0.64NaCl-0.36UCl3,SCM,1031.979797979798,0.2641249053753235
0.64NaCl-0.36UCl3,SCM,1036.180303030303,0.2634369527673305
0.64NaCl-0.36UCl3,SCM,1040.380808080808,0.262748954214395
0.64NaCl-0.36UCl3,SCM,1044.581313131313,0.26206091135077986
0.64NaCl-0.36UCl3,SCM,1048.7818181818182,0.26137282582525745
0.64NaCl-0.36UCl3,SCM,1052.9823232323233,0.26068469930118954
0.64NaCl-0.36UCl3,SCM,1057.1828282828283,0.25999653345660795
0.64NaCl-0.36UCl3,SCM,1061.3833333333332,0.2593083299842944
0.64NaCl-0.36UCl3,SCM,1065.5838383838384,0.25862009059186114
0.64NaCl-0.36UCl3,SCM,1069.7843434343436,0.25793181700183165
0.64NaCl-0.36UCl3,SCM,1073.9848484848485,0.25724351095172115
0.64NaCl-0.36UCl3,SCM,1078.1853535353534,0.2565551741941168
0.64NaCl-0.36UCl3,SCM,1082.3858585858586,0.2558668084967587
0.64NaCl-0.36UCl3,SCM,1086.5863636363636,0.2551784156426212
0.64NaCl-0.36UCl3,SCM,1090.7868686868687,0.25448999742999306
0.64NaCl-0.36UCl3,SCM,1094.9873737373737,0.2538015556725585
0.64NaCl-0.36UCl3,SCM,1099.1878787878788,0.25311309219947814
0.64NaCl-0.36UCl3,SCM,1103.3883838383838,0.2524246088554702
0.64NaCl-0.36UCl3,SCM,1107.588888888889,0.25173610750089126
0.64NaCl-0.36UCl3,SCM,1111.789393939394,0.25104759001181737
0.64NaCl-0.36UCl3,SCM,1115.9898989898988,0.2503590582801249
0.64NaCl-0.36UCl3,SCM,1120.190404040404,0.24967051421357234
0.64NaCl-0.36UCl3,SCM,1124.3909090909092,0.2489819597358802
0.64NaCl-0.36UCl3,SCM,1128.5914141414141,0.2482933967868134
0.64NaCl-0.36UCl3,SCM,1132.791919191919,0.2476048273222611
0.64NaCl-0.36UCl3,SCM,1136.9924242424242,0.24691625331431882
0.64NaCl-0.36UCl3,SCM,1141.1929292929292,0.24622767675136883
0.64NaCl-0.36UCl3,SCM,1145.3934343434344,0.24553909963816137
0.64NaCl-0.36UCl3,SCM,1149.5939393939393,0.24485052399589574
0.64NaCl-0.36UCl3,SCM,1153.7944444444445,0.24416195186230114
0.64NaCl-0.36UCl3,SCM,1157.9949494949494,0.24347338529171766
0.64NaCl-0.36UCl3,SCM,1162.1954545454546,0.24278482635517712
0.64NaCl-0.36UCl3,SCM,1166.3959595959595,0.24209627714048373
0.64NaCl-0.36UCl3,SCM,1170.5964646464645,0.24140773975229524
0.64NaCl-0.36UCl3,SCM,1174.7969696969697,0.24071921631220297
0.64NaCl-0.36UCl3,SCM,1178.9974747474748,0.2400307089588131
0.64NaCl-0.36UCl3,SCM,1183.1979797979798,0.23934221984782675
0.64NaCl-0.36UCl3,SCM,1187.3984848484847,0.2386537511521203
0.64NaCl-0.36UCl3,SCM,1191.5989898989899,0.23796530506182592
0.64NaCl-0.36UCl3,SCM,1195.799494949495,0.2372768837844117
0.64NaCl-0.36UCl3,SCM,1200.0,0.23658848954476194
0.64NaCl-0.36UCl3,"SCM, Mix Data",784.15,0.26746277498990534
0.64NaCl-0.36UCl3,"SCM, Mix Data",788.350505050505,0.2669146301077258
0.64NaCl-0.36UCl3,"SCM, Mix Data",792.5510101010101,0.266366282073527
0.64NaCl-0.36UCl3,"SCM, Mix Data",796.7515151515152,0.2658177312480769
0.64NaCl-0.36UCl3,"SCM, Mix Data",800.9520202020202,0.26526897799933835
0.64NaCl-0.36UCl3,"SCM, Mix Data",805.1525252525253,0.2647200227025263
0.64NaCl-0.36UCl3,"SCM, Mix Data",809.3530303030303,0.26417086574016646
0.64NaCl-0.36UCl3,"SCM, Mix Data",813.5535353535354,0.2636215075021525
0.64NaCl-0.36UCl3,"SCM, Mix Data",817.7540404040403,0.2630719483858055
0.64NaCl-0.36UCl3,"SCM, Mix Data",821.9545454545454,0.2625221887959319
0.64NaCl-0.36UCl3,"SCM, Mix Data",826.1550505050504,0.2619722291448831
0.64NaCl-0.36UCl3,"SCM, Mix Data",830.3555555555555,0.2614220698526147
0.64NaCl-0.36UCl3,"SCM, Mix Data",834.5560606060606,0.2608717113467459
0.64NaCl-0.36UCl3,"SCM, Mix Data",838.7565656565656,0.26032115406261963
0.64NaCl-0.36UCl3,"SCM, Mix Data",842.9570707070707,0.2597703984433627
0.64NaCl-0.36UCl3,"SCM, Mix Data",847.1575757575757,0.25921944493994614
0.64NaCl-0.36UCl3,"SCM, Mix Data",851.3580808080808,0.25866829401124636
0.64NaCl-0.36UCl3,"SCM, Mix Data",855.5585858585858,0.25811694612410563
0.64NaCl-0.36UCl3,"SCM, Mix Data",859.7590909090909,0.2575654017533942
0.64NaCl-0.36UCl3,"SCM, Mix Data",863.959595959596,0.25701366138207093
0.64NaCl-0.36UCl3,"SCM, Mix Data",868.160101010101,0.25646172550124596
0.64NaCl-0.36UCl3,"SCM, Mix Data",872.3606060606061,0.25590959461024293
0.64NaCl-0.36UCl3,"SCM, Mix Data",876.5611111111111,0.2553572692166606
0.64NaCl-0.36UCl3,"SCM, Mix Data",880.7616161616161,0.25480474983643653
0.64NaCl-0.36UCl3,"SCM, Mix Data",884.9621212121212,0.2542520369939098
0.64NaCl-0.36UCl3,"SCM, Mix Data",889.1626262626262,0.2536991312218841
0.64NaCl-0.36UCl3,"SCM, Mix Data",893.3631313131312,0.25314603306169126
0.64NaCl-0.36UCl3,"SCM, Mix Data",897.5636363636363,0.2525927430632556
0.64NaCl-0.36UCl3,"SCM, Mix Data",901.7641414141414,0.2520392617851576
0.64NaCl-0.36UCl3,"SCM, Mix Data",905.9646464646464,0.2514855897946984
0.64NaCl-0.36UCl3,"SCM, Mix Data",910.1651515151515,0.2509317276679647
0.64NaCl-0.36UCl3,"SCM, Mix Data",914.3656565656565,0.25037767598989297
0.64NaCl-0.36UCl3,"SCM, Mix Data",918.5661616161616,0.2498234353543359
0.64NaCl-0.36UCl3,"SCM, Mix Data",922.7666666666667,0.24926900636412666
0.64NaCl-0.36UCl3,"SCM, Mix Data",926.9671717171717,0.2487143896311453
0.64NaCl-0.36UCl3,"SCM, Mix Data",931.1676767676768,0.2481595857763845
0.64NaCl-0.36UCl3,"SCM, Mix Data",935.3681818181818,0.24760459543001606
0.64NaCl-0.36UCl3,"SCM, Mix Data",939.5686868686869,0.24704941923145718
0.64NaCl-0.36UCl3,"SCM, Mix Data",943.7691919191918,0.24649405782943737
0.64NaCl-0.36UCl3,"SCM, Mix Data",947.969696969697,0.24593851188206564
0.64NaCl-0.36UCl3,"SCM, Mix Data",952.1702020202019,0.24538278205689756
0.64NaCl-0.36UCl3,"SCM, Mix Data",956.3707070707071,0.24482686903100276
0.64NaCl-0.36UCl3,"SCM, Mix Data",960.571212121212,0.24427077349103324
0.64NaCl-0.36UCl3,"SCM, Mix Data",964.7717171717171,0.24371449613329083
0.64NaCl-0.36UCl3,"SCM, Mix Data",968.9722222222222,0.24315803766379587
0.64NaCl-0.36UCl3,"SCM, Mix Data",973.1727272727272,0.24260139879835554
0.64NaCl-0.36UCl3,"SCM, Mix Data",977.3732323232323,0.24204458026263326
0.64NaCl-0.36UCl3,"SCM, Mix Data",981.5737373737373,0.2414875827922166
0.64NaCl-0.36UCl3,"SCM, Mix Data",985.7742424242424,0.24093040713268793
0.64NaCl-0.36UCl3,"SCM, Mix Data",989.9747474747475,0.24037305403969264
0.64NaCl-0.36UCl3,"SCM, Mix Data",994.1752525252525,0.23981552427901012
0.64NaCl-0.36UCl3,"SCM, Mix Data",998.3757575757576,0.23925781862662288
0.64NaCl-0.36UCl3,"SCM, Mix Data",1002.5762626262626,0.23869993786878704
0.64NaCl-0.36UCl3,"SCM, Mix Data",1006.7767676767677,0.23814188280210308
0.64NaCl-0.36UCl3,"SCM, Mix Data",1010.9772727272727,0.23758365423358624
0.64NaCl-0.36UCl3,"SCM, Mix Data",1015.1777777777777,0.23702525298073743
0.64NaCl-0.36UCl3,"SCM, Mix Data",1019.3782828282829,0.23646667987161443
0.64NaCl-0.36UCl3,"SCM, Mix Data",1023.5787878787878,0.23590793574490343
0.64NaCl-0.36UCl3,"SCM, Mix Data",1027.779292929293,0.2353490214499902
0.64NaCl-0.36UCl3,"SCM, Mix Data",1031.979797979798,0.23478993784703245
0.64NaCl-0.36UCl3,"SCM, Mix Data",1036.180303030303,0.23423068580703132
0.64NaCl-0.36UCl3,"SCM, Mix Data",1040.380808080808,0.23367126621190382
0.64NaCl-0.36UCl3,"SCM, Mix Data",1044.581313131313,0.23311167995455523
0.64NaCl-0.36UCl3,"SCM, Mix Data",1048.7818181818182,0.23255192793895169
0.64NaCl-0.36UCl3,"SCM, Mix Data",1052.9823232323233,0.231992011080193
0.64NaCl-0.36UCl3,"SCM, Mix Data",1057.1828282828283,0.23143193030458598
0.64NaCl-0.36UCl3,"SCM, Mix Data",1061.3833333333332,0.23087168654971693
0.64NaCl-0.36UCl3,"SCM, Mix Data",1065.5838383838384,0.23031128076452578
0.64NaCl-0.36UCl3,"SCM, Mix Data",1069.7843434343436,0.22975071390937937
0.64NaCl-0.36UCl3,"SCM, Mix Data",1073.9848484848485,0.22918998695614526
0.64NaCl-0.36UCl3,"SCM, Mix Data",1078.1853535353534,0.22862910088826546
0.64NaCl-0.36UCl3,"SCM, Mix Data",1082.3858585858586,0.22806805670083102
0.64NaCl-0.36UCl3,"SCM, Mix Data",1086.5863636363636,0.22750685540065593
0.64NaCl-0.36UCl3,"SCM, Mix Data",1090.7868686868687,0.22694549800635175
0.64NaCl-0.36UCl3,"SCM, Mix Data",1094.9873737373737,0.2263839855484023
0.64NaCl-0.36UCl3,"SCM, Mix Data",1099.1878787878788,0.2258223190692382
0.64NaCl-0.36UCl3,"SCM, Mix Data",1103.3883838383838,0.22526049962331232
0.64NaCl-0.36UCl3,"SCM, Mix Data",1107.588888888889,0.2246985282771744
0.64NaCl-0.36UCl3,"SCM, Mix Data",1111.789393939394,0.22413640610954635
0.64NaCl-0.36UCl3,"SCM, Mix Data",1115.9898989898988,0.2235741342113981
0.64NaCl-0.36UCl3,"SCM, Mix Data",1120.190404040404,0.2230117136860226
0.64NaCl-0.36UCl3,"SCM, Mix Data",1124.3909090909092,0.22244914564911183
0.64NaCl-0.36UCl3,"SCM, Mix Data",1128.5914141414141,0.22188643122883273
0.64NaCl-0.36UCl3,"SCM, Mix Data",1132.791919191919,0.2213235715659025
0.64NaCl-0.36UCl3,"SCM, Mix Data",1136.9924242424242,0.22076056781366546
0.64NaCl-0.36UCl3,"SCM, Mix Data",1141.1929292929292,0.22019742113816873
0.64NaCl-0.36UCl3,"SCM, Mix Data",1145.3934343434344,0.21963413271823884
0.64NaCl-0.36UCl3,"SCM, Mix Data",1149.5939393939393,0.2190707037455579
0.64NaCl-0.36UCl3,"SCM, Mix Data",1153.7944444444445,0.21850713542474004
0.64NaCl-0.36UCl3,"SCM, Mix Data",1157.9949494949494,0.21794342897340843
0.64NaCl-0.36UCl3,"SCM, Mix Data",1162.1954545454546,0.2173795856222716
0.64NaCl-0.36UCl3,"SCM, Mix Data",1166.3959595959595,0.2168156066152005
0.64NaCl-0.36UCl3,"SCM, Mix Data",1170.5964646464645,0.21625149320930534
0.64NaCl-0.36UCl3,"SCM, Mix Data",1174.7969696969697,0.21568724667501213
0.64NaCl-0.36UCl3,"SCM, Mix Data",1178.9974747474748,0.21512286829614052
0.64NaCl-0.36UCl3,"SCM, Mix Data",1183.1979797979798,0.21455835936998027
0.64NaCl-0.36UCl3,"SCM, Mix Data",1187.3984848484847,0.21399372120736873
0.64NaCl-0.36UCl3,"SCM, Mix Data",1191.5989898989899,0.2134289551327677
0.64NaCl-0.36UCl3,"SCM, Mix Data",1195.799494949495,0.21286406248434137
0.64NaCl-0.36UCl3,"SCM, Mix Data",1200.0,0.21229904461403304