Composition,Method,Temperature_K,Thermal_Conductivity_W_mK
0.78NaF-0.22UF4,0.78NaF-0.22UF₄,900.0,0.5366549776161671
0.78NaF-0.22UF4,0.78NaF-0.22UF₄,903.030303030303,0.5360564668992247
0.78NaF-0.22UF4,0.78NaF-0.22UF₄,906.060606060606,0.5354573348108248
0.78NaF-0.22UF4,0.78NaF-0.22UF₄,909.0909090909091,0.534857580974873
0.78NaF-0.22UF4,0.78NaF-0.22UF₄,912.1212121212121,0.5342572050221158
0.78NaF-0.22UF4,0.78NaF-0.22UF₄,915.1515151515151,0.5336562065901924
0.78NaF-0.22UF4,0.78NaF-0.22UF₄,918.1818181818181,0.5330545853236858
0.78NaF-0.22UF4,0.78NaF-0.22UF₄,921.2121212121212,0.5324523408741783
0.78NaF-0.22UF4,0.78NaF-0.22UF₄,924.2424242424242,0.5318494729003013
0.78NaF-0.22UF4,0.78NaF-0.22UF₄,927.2727272727273,0.5312459810677905
0.78NaF-0.22UF4,0.78NaF-0.22UF₄,930.3030303030303,0.5306418650495383
0.78NaF-0.22UF4,0.78NaF-0.22UF₄,933.3333333333334,0.5300371245256467
0.78NaF-0.22UF4,0.78NaF-0.22UF₄,936.3636363636364,0.529431759183481
0.78NaF-0.22UF4,0.78NaF-0.22UF₄,939.3939393939394,0.5288257687177231
0.78NaF-0.22UF4,0.78NaF-0.22UF₄,942.4242424242424,0.5282191528304256
0.78NaF-0.22UF4,0.78NaF-0.22UF₄,945.4545454545455,0.5276119112310652
0.78NaF-0.22UF4,0.78NaF-0.22UF₄,948.4848484848485,0.5270040436365961
0.78NaF-0.22UF4,0.78NaF-0.22UF₄,951.5151515151515,0.526395549771505
0.78NaF-0.22UF4,0.78NaF-0.22UF₄,954.5454545454545,0.5257864293678648
0.78NaF-0.22UF4,0.78NaF-0.22UF₄,957.5757575757576,0.5251766821653882
0.78NaF-0.22UF4,0.78NaF-0.22UF₄,960.6060606060606,0.5245663079114828
0.78NaF-0.22UF4,0.78NaF-0.22UF₄,963.6363636363636,0.5239553063613057
0.78NaF-0.22UF4,0.78NaF-0.22UF₄,966.6666666666666,0.5233436772778177
0.78NaF-0.22UF4,0.78NaF-0.22UF₄,969.6969696969697,0.5227314204318376
0.78NaF-0.22UF4,0.78NaF-0.22UF₄,972.7272727272727,0.5221185356020981
0.78NaF-0.22UF4,0.78NaF-0.22UF₄,975.7575757575758,0.5215050225752993
0.78NaF-0.22UF4,0.78NaF-0.22UF₄,978.7878787878788,0.5208908811461651
0.78NaF-0.22UF4,0.78NaF-0.22UF₄,981.8181818181818,0.5202761111174977
0.78NaF-0.22UF4,0.78NaF-0.22UF₄,984.8484848484849,0.5196607123002323
0.78NaF-0.22UF4,0.78NaF-0.22UF₄,987.8787878787879,0.5190446845134932
0.78NaF-0.22UF4,0.78NaF-0.22UF₄,990.9090909090909,0.5184280275846492
0.78NaF-0.22UF4,0.78NaF-0.22UF₄,993.939393939394,0.5178107413493684
0.78NaF-0.22UF4,0.78NaF-0.22UF₄,996.969696969697,0.5171928256516747
0.78NaF-0.22UF4,0.78NaF-0.22UF₄,1000.0,0.5165742803440023
0.78NaF-0.22UF4,0.78NaF-0.22UF₄,1003.030303030303,0.5159551052872533
0.78NaF-0.22UF4,0.78NaF-0.22UF₄,1006.060606060606,0.5153353003508512
0.78NaF-0.22UF4,0.78NaF-0.22UF₄,1009.0909090909091,0.5147148654127991
0.78NaF-0.22UF4,0.78NaF-0.22UF₄,1012.1212121212121,0.5140938003597345
0.78NaF-0.22UF4,0.78NaF-0.22UF₄,1015.1515151515151,0.5134721050869855
0.78NaF-0.22UF4,0.78NaF-0.22UF₄,1018.1818181818182,0.5128497794986269
0.78NaF-0.22UF4,0.78NaF-0.22UF₄,1021.2121212121212,0.5122268235075369
0.78NaF-0.22UF4,0.78NaF-0.22UF₄,1024.2424242424242,0.5116032370354534
0.78NaF-0.22UF4,0.78NaF-0.22UF₄,1027.2727272727273,0.5109790200130301
0.78NaF-0.22UF4,0.78NaF-0.22UF₄,1030.3030303030303,0.5103541723798924
0.78NaF-0.22UF4,0.78NaF-0.22UF₄,1033.3333333333333,0.5097286940846958
0.78NaF-0.22UF4,0.78NaF-0.22UF₄,1036.3636363636365,0.5091025850851799
0.78NaF-0.22UF4,0.78NaF-0.22UF₄,1039.3939393939395,0.5084758453482272
0.78NaF-0.22UF4,0.78NaF-0.22UF₄,1042.4242424242425,0.507848474849919
0.78NaF-0.22UF4,0.78NaF-0.22UF₄,1045.4545454545455,0.5072204735755919
0.78NaF-0.22UF4,0.78NaF-0.22UF₄,1048.4848484848485,0.5065918415198942
0.78NaF-0.22UF4,0.78NaF-0.22UF₄,1051.5151515151515,0.5059625786868448
0.78NaF-0.22UF4,0.78NaF-0.22UF₄,1054.5454545454545,0.5053326850898876
0.78NaF-0.22UF4,0.78NaF-0.22UF₄,1057.5757575757575,0.5047021607519494
0.78NaF-0.22UF4,0.78NaF-0.22UF₄,1060.6060606060605,0.5040710057054977
0.78NaF-0.22UF4,0.78NaF-0.22UF₄,1063.6363636363635,0.5034392199925963
0.78NaF-0.22UF4,0.78NaF-0.22UF₄,1066.6666666666667,0.5028068036649636
0.78NaF-0.22UF4,0.78NaF-0.22UF₄,1069.6969696969697,0.5021737567840285
0.78NaF-0.22UF4,0.78NaF-0.22UF₄,1072.7272727272727,0.5015400794209884
0.78NaF-0.22UF4,0.78NaF-0.22UF₄,1075.7575757575758,0.5009057716568663
0.78NaF-0.22UF4,0.78NaF-0.22UF₄,1078.7878787878788,0.5002708335825669
0.78NaF-0.22UF4,0.78NaF-0.22UF₄,1081.8181818181818,0.4996352652989351
0.78NaF-0.22UF4,0.78NaF-0.22UF₄,1084.8484848484848,0.4989990669168123
0.78NaF-0.22UF4,0.78NaF-0.22UF₄,1087.878787878788,0.49836223855709433
0.78NaF-0.22UF4,0.78NaF-0.22UF₄,1090.909090909091,0.49772478035078754
0.78NaF-0.22UF4,0.78NaF-0.22UF₄,1093.939393939394,0.4970866924390674
0.78NaF-0.22UF4,0.78NaF-0.22UF₄,1096.969696969697,0.4964479749733344
0.78NaF-0.22UF4,0.78NaF-0.22UF₄,1100.0,0.49580862811527227
0.78NaF-0.22UF4,0.78NaF-0.22UF₄,1103.030303030303,0.4951686520369047
0.78NaF-0.22UF4,0.78NaF-0.22UF₄,1106.060606060606,0.49452804692065216
0.78NaF-0.22UF4,0.78NaF-0.22UF₄,1109.090909090909,0.49388681295939024
0.78NaF-0.22UF4,0.78NaF-0.22UF₄,1112.121212121212,0.49324495035650573
0.78NaF-0.22UF4,0.78NaF-0.22UF₄,1115.1515151515152,0.4926024593259541
0.78NaF-0.22UF4,0.78NaF-0.22UF₄,1118.1818181818182,0.49195934009231723
0.78NaF-0.22UF4,0.78NaF-0.22UF₄,1121.2121212121212,0.4913155928908596
0.78NaF-0.22UF4,0.78NaF-0.22UF₄,1124.2424242424242,0.49067121796758567
0.78NaF-0.22UF4,0.78NaF-0.22UF₄,1127.2727272727273,0.4900262155792978
0.78NaF-0.22UF4,0.78NaF-0.22UF₄,1130.3030303030303,0.4893805859936516
0.78NaF-0.22UF4,0.78NaF-0.22UF₄,1133.3333333333333,0.48873432948921497
0.78NaF-0.22UF4,0.78NaF-0.22UF₄,1136.3636363636365,0.4880874463555231
0.78NaF-0.22UF4,0.78NaF-0.22UF₄,1139.3939393939395,0.4874399368931367
0.78NaF-0.22UF4,0.78NaF-0.22UF₄,1142.4242424242425,0.48679180141369843
0.78NaF-0.22UF4,0.78NaF-0.22UF₄,1145.4545454545455,0.4861430402399893
0.78NaF-0.22UF4,0.78NaF-0.22UF₄,1148.4848484848485,0.48549365370598613
0.78NaF-0.22UF4,0.78NaF-0.22UF₄,1151.5151515151515,0.484843642156918
0.78NaF-0.22UF4,0.78NaF-0.22UF₄,1154.5454545454545,0.48419300594932263
0.78NaF-0.22UF4,0.78NaF-0.22UF₄,1157.5757575757575,0.48354174545110323
0.78NaF-0.22UF4,0.78NaF-0.22UF₄,1160.6060606060605,0.48288986104158493
0.78NaF-0.22UF4,0.78NaF-0.22UF₄,1163.6363636363635,0.48223735311157123
0.78NaF-0.22UF4,0.78NaF-0.22UF₄,1166.6666666666667,0.48158422206339957
0.78NaF-0.22UF4,0.78NaF-0.22UF₄,1169.6969696969697,0.48093046831099984
0.78NaF-0.22UF4,0.78NaF-0.22UF₄,1172.7272727272727,0.48027609227994733
0.78NaF-0.22UF4,0.78NaF-0.22UF₄,1175.7575757575758,0.479621094407522
0.78NaF-0.22UF4,0.78NaF-0.22UF₄,1178.7878787878788,0.47896547514276167
0.78NaF-0.22UF4,0.78NaF-0.22UF₄,1181.8181818181818,0.47830923494652045
0.78NaF-0.22UF4,0.78NaF-0.22UF₄,1184.848484848485,0.4776523742915224
0.78NaF-0.22UF4,0.78NaF-0.22UF₄,1187.878787878788,0.4769948936624186
0.78NaF-0.22UF4,0.78NaF-0.22UF₄,1190.909090909091,0.4763367935558425
0.78NaF-0.22UF4,0.78NaF-0.22UF₄,1193.939393939394,0.4756780744804646
0.78NaF-0.22UF4,0.78NaF-0.22UF₄,1196.969696969697,0.47501873695704905
0.78NaF-0.22UF4,0.78NaF-0.22UF₄,1200.0,0.4743587815185077