Composition,Method,Temperature_K,Thermal_Conductivity_W_mK
0.78NaF-0.22UF4 900K,"Present Model, Mix Data",900.0,0.5523735747705208
0.78NaF-0.22UF4 900K,"Present Model, Mix Data",903.030303030303,0.5517575337049475
0.78NaF-0.22UF4 900K,"Present Model, Mix Data",906.060606060606,0.5511408530679779
0.78NaF-0.22UF4 900K,"Present Model, Mix Data",909.0909090909091,0.5505235324725022
0.78NaF-0.22UF4 900K,"Present Model, Mix Data",912.1212121212121,0.5499055715384514
0.78NaF-0.22UF4 900K,"Present Model, Mix Data",915.1515151515151,0.5492869698928509
0.78NaF-0.22UF4 900K,"Present Model, Mix Data",918.1818181818181,0.5486677271698738
0.78NaF-0.22UF4 900K,"Present Model, Mix Data",921.2121212121212,0.5480478430108973
0.78NaF-0.22UF4 900K,"Present Model, Mix Data",924.2424242424242,0.547427317064554
0.78NaF-0.22UF4 900K,"Present Model, Mix Data",927.2727272727273,0.5468061489867891
0.78NaF-0.22UF4 900K,"Present Model, Mix Data",930.3030303030303,0.546184338440914
0.78NaF-0.22UF4 900K,"Present Model, Mix Data",933.3333333333334,0.5455618850976609
0.78NaF-0.22UF4 900K,"Present Model, Mix Data",936.3636363636364,0.544938788635238
0.78NaF-0.22UF4 900K,"Present Model, Mix Data",939.3939393939394,0.5443150487393846
0.78NaF-0.22UF4 900K,"Present Model, Mix Data",942.4242424242424,0.5436906651034265
0.78NaF-0.22UF4 900K,"Present Model, Mix Data",945.4545454545455,0.5430656374283305
0.78NaF-0.22UF4 900K,"Present Model, Mix Data",948.4848484848485,0.5424399654227609
0.78NaF-0.22UF4 900K,"Present Model, Mix Data",951.5151515151515,0.5418136488031343
0.78NaF-0.22UF4 900K,"Present Model, Mix Data",954.5454545454545,0.5411866872936762
0.78NaF-0.22UF4 900K,"Present Model, Mix Data",957.5757575757576,0.5405590806264755
0.78NaF-0.22UF4 900K,"Present Model, Mix Data",960.6060606060606,0.5399308285415415
0.78NaF-0.22UF4 900K,"Present Model, Mix Data",963.6363636363636,0.5393019307868597
0.78NaF-0.22UF4 900K,"Present Model, Mix Data",966.6666666666666,0.538672387118448
0.78NaF-0.22UF4 900K,"Present Model, Mix Data",969.6969696969697,0.5380421973004125
0.78NaF-0.22UF4 900K,"Present Model, Mix Data",972.7272727272727,0.537411361105005
0.78NaF-0.22UF4 900K,"Present Model, Mix Data",975.7575757575758,0.5367798783126783
0.78NaF-0.22UF4 900K,"Present Model, Mix Data",978.7878787878788,0.5361477487121434
0.78NaF-0.22UF4 900K,"Present Model, Mix Data",981.8181818181818,0.5355149721004269
0.78NaF-0.22UF4 900K,"Present Model, Mix Data",984.8484848484849,0.534881548282926
0.78NaF-0.22UF4 900K,"Present Model, Mix Data",987.8787878787879,0.5342474770734674
0.78NaF-0.22UF4 900K,"Present Model, Mix Data",990.9090909090909,0.5336127582943636
0.78NaF-0.22UF4 900K,"Present Model, Mix Data",993.939393939394,0.5329773917764692
0.78NaF-0.22UF4 900K,"Present Model, Mix Data",996.969696969697,0.5323413773592396
0.78NaF-0.22UF4 900K,"Present Model, Mix Data",1000.0,0.5317047148907869
0.78NaF-0.22UF4 900K,"Present Model, Mix Data",1003.030303030303,0.531067404227939
0.78NaF-0.22UF4 900K,"Present Model, Mix Data",1006.060606060606,0.5304294452362948
0.78NaF-0.22UF4 900K,"Present Model, Mix Data",1009.0909090909091,0.5297908377902841
0.78NaF-0.22UF4 900K,"Present Model, Mix Data",1012.1212121212121,0.5291515817732242
0.78NaF-0.22UF4 900K,"Present Model, Mix Data",1015.1515151515151,0.528511677077377
0.78NaF-0.22UF4 900K,"Present Model, Mix Data",1018.1818181818182,0.527871123604008
0.78NaF-0.22UF4 900K,"Present Model, Mix Data",1021.2121212121212,0.5272299212634435
0.78NaF-0.22UF4 900K,"Present Model, Mix Data",1024.2424242424242,0.5265880699751291
0.78NaF-0.22UF4 900K,"Present Model, Mix Data",1027.2727272727273,0.5259455696676872
0.78NaF-0.22UF4 900K,"Present Model, Mix Data",1030.3030303030303,0.5253024202789751
0.78NaF-0.22UF4 900K,"Present Model, Mix Data",1033.3333333333333,0.5246586217561442
0.78NaF-0.22UF4 900K,"Present Model, Mix Data",1036.3636363636365,0.5240141740556965
0.78NaF-0.22UF4 900K,"Present Model, Mix Data",1039.3939393939395,0.5233690771435443
0.78NaF-0.22UF4 900K,"Present Model, Mix Data",1042.4242424242425,0.5227233309950683
0.78NaF-0.22UF4 900K,"Present Model, Mix Data",1045.4545454545455,0.5220769355951758
0.78NaF-0.22UF4 900K,"Present Model, Mix Data",1048.4848484848485,0.5214298909383583
0.78NaF-0.22UF4 900K,"Present Model, Mix Data",1051.5151515151515,0.5207821970287524
0.78NaF-0.22UF4 900K,"Present Model, Mix Data",1054.5454545454545,0.5201338538801955
0.78NaF-0.22UF4 900K,"Present Model, Mix Data",1057.5757575757575,0.5194848615162864
0.78NaF-0.22UF4 900K,"Present Model, Mix Data",1060.6060606060605,0.5188352199704432
0.78NaF-0.22UF4 900K,"Present Model, Mix Data",1063.6363636363635,0.5181849292859622
0.78NaF-0.22UF4 900K,"Present Model, Mix Data",1066.6666666666667,0.5175339895160759
0.78NaF-0.22UF4 900K,"Present Model, Mix Data",1069.6969696969697,0.516882400724013
0.78NaF-0.22UF4 900K,"Present Model, Mix Data",1072.7272727272727,0.5162301629830562
0.78NaF-0.22UF4 900K,"Present Model, Mix Data",1075.7575757575758,0.5155772763766016
0.78NaF-0.22UF4 900K,"Present Model, Mix Data",1078.7878787878788,0.5149237409982163
0.78NaF-0.22UF4 900K,"Present Model, Mix Data",1081.8181818181818,0.5142695569516993
0.78NaF-0.22UF4 900K,"Present Model, Mix Data",1084.8484848484848,0.5136147243511383
0.78NaF-0.22UF4 900K,"Present Model, Mix Data",1087.878787878788,0.5129592433209702
0.78NaF-0.22UF4 900K,"Present Model, Mix Data",1090.909090909091,0.5123031139960386
0.78NaF-0.22UF4 900K,"Present Model, Mix Data",1093.939393939394,0.5116463365216539
0.78NaF-0.22UF4 900K,"Present Model, Mix Data",1096.969696969697,0.5109889110536513
0.78NaF-0.22UF4 900K,"Present Model, Mix Data",1100.0,0.5103308377584499
0.78NaF-0.22UF4 900K,"Present Model, Mix Data",1103.030303030303,0.5096721168131121
0.78NaF-0.22UF4 900K,"Present Model, Mix Data",1106.060606060606,0.5090127484054016
0.78NaF-0.22UF4 900K,"Present Model, Mix Data",1109.090909090909,0.5083527327338432
0.78NaF-0.22UF4 900K,"Present Model, Mix Data",1112.121212121212,0.5076920700077808
0.78NaF-0.22UF4 900K,"Present Model, Mix Data",1115.1515151515152,0.5070307604474368
0.78NaF-0.22UF4 900K,"Present Model, Mix Data",1118.1818181818182,0.5063688042839709
0.78NaF-0.22UF4 900K,"Present Model, Mix Data",1121.2121212121212,0.5057062017595385
0.78NaF-0.22UF4 900K,"Present Model, Mix Data",1124.2424242424242,0.5050429531273496
0.78NaF-0.22UF4 900K,"Present Model, Mix Data",1127.2727272727273,0.5043790586517282
0.78NaF-0.22UF4 900K,"Present Model, Mix Data",1130.3030303030303,0.5037145186081695
0.78NaF-0.22UF4 900K,"Present Model, Mix Data",1133.3333333333333,0.5030493332834008
0.78NaF-0.22UF4 900K,"Present Model, Mix Data",1136.3636363636365,0.5023835029754377
0.78NaF-0.22UF4 900K,"Present Model, Mix Data",1139.3939393939395,0.5017170279936441
0.78NaF-0.22UF4 900K,"Present Model, Mix Data",1142.4242424242425,0.5010499086587911
0.78NaF-0.22UF4 900K,"Present Model, Mix Data",1145.4545454545455,0.5003821453031135
0.78NaF-0.22UF4 900K,"Present Model, Mix Data",1148.4848484848485,0.4997137382703705
0.78NaF-0.22UF4 900K,"Present Model, Mix Data",1151.5151515151515,0.49904468791590295
0.78NaF-0.22UF4 900K,"Present Model, Mix Data",1154.5454545454545,0.4983749946066915
0.78NaF-0.22UF4 900K,"Present Model, Mix Data",1157.5757575757575,0.49770465872141517
0.78NaF-0.22UF4 900K,"Present Model, Mix Data",1160.6060606060605,0.4970336806505095
0.78NaF-0.22UF4 900K,"Present Model, Mix Data",1163.6363636363635,0.49636206079622475
0.78NaF-0.22UF4 900K,"Present Model, Mix Data",1166.6666666666667,0.49568979957268267
0.78NaF-0.22UF4 900K,"Present Model, Mix Data",1169.6969696969697,0.49501689740593713
0.78NaF-0.22UF4 900K,"Present Model, Mix Data",1172.7272727272727,0.4943433547340286
0.78NaF-0.22UF4 900K,"Present Model, Mix Data",1175.7575757575758,0.49366917200704485
0.78NaF-0.22UF4 900K,"Present Model, Mix Data",1178.7878787878788,0.49299434968717604
0.78NaF-0.22UF4 900K,"Present Model, Mix Data",1181.8181818181818,0.4923188882487746
0.78NaF-0.22UF4 900K,"Present Model, Mix Data",1184.848484848485,0.49164278817841084
0.78NaF-0.22UF4 900K,"Present Model, Mix Data",1187.878787878788,0.4909660499749311
0.78NaF-0.22UF4 900K,"Present Model, Mix Data",1190.909090909091,0.4902886741495152
0.78NaF-0.22UF4 900K,"Present Model, Mix Data",1193.939393939394,0.4896106612257326
0.78NaF-0.22UF4 900K,"Present Model, Mix Data",1196.969696969697,0.4889320117396006
0.78NaF-0.22UF4 900K,"Present Model, Mix Data",1200.0,0.48825272623964